# vtk DataFile Version 2.0
wire, Created by Gmsh 4.11.1 
ASCII
DATASET UNSTRUCTURED_GRID
POINTS 9 double
0.003826834494248033 -0.009238794445991516 1
0.003826834494248033 -0.009238794445991516 0.549608889170129
0.003826834494248033 -0.009238794445991516 0.09921777834025802
0.003826834494248033 -0.009238794445991516 -0.3511733324896129
0.003826834494248033 -0.009238794445991516 -0.801564443319484
-0.001950903213582933 0.00980785209685564 -0.3196136482280263
-0.001950903213582933 0.00980785209685564 0.130777462601845
-0.001950903213582933 0.00980785209685564 0.5811685734317162
0.002849874489838653 -0.009535152084902628 0.1123364709128237

CELLS 6 30
4 4 8 3 5
4 6 7 8 1
4 1 8 6 2
4 8 0 1 7
4 5 6 8 2
4 2 8 5 3

CELL_TYPES 6
10
10
10
10
10
10

CELL_DATA 6
SCALARS CellEntityIds int 1
LOOKUP_TABLE default
1
1
1
1
1
1
